rest_density(kg/m3):	997.02
viscosity(Pa*s):	8.9003e-4
sound_speed(m/s):	1496.6
bulk_modulus(kg/s2m):	2.23313e9
specific_heat_p(J/kgK):	4181.6
thermal_expansion(/K not found):	2.560e-4
mean_excitation_energy(J):  1.276935e-17
molar_mass(u):		18.01528
atomic_number():	10