rest_density(kg/m3):	2966.3
viscosity(Pa*s):	1.70e-2
sound_speed(m/s):	653.47
bulk_modulus(kg/s2m):	1.2667e+9
specific_heat_p(J/kgK):	338.48
thermal_expansion(/K): 0.0013952
mean_excitation_energy(J):    1.8425031291e-18
molar_mass(u):  131.293
atomic_number():   54
