rest_density(kg/m3):	2942.4
viscosity(Pa*s):	5.1042e-4
sound_speed(m/s):	643.27
bulk_modulus(kg/s2m):	1.21755e9
specific_heat_p(J/kgK):	339.27
thermal_expansion(/K):	2.260e-3
mean_excitation_energy(J):  7.72249e-17
molar_mass(u):		131.293
atomic_number():	54