rest_density(kg/m3):	3057
viscosity(Pa*s):	5.2012e-4
sound_speed(m/s):	646.10
bulk_modulus(kg/s2m):	1.276e9
specific_heat_p(J/kgK):	339.69
thermal_expansion(/K):	0.00226		
mean_excitation_energy(J):7.72249e-17
molar_mass(u):		131.293
atomic_number():	54